# vtk DataFile Version 2.0
some title
ASCII
DATASET RECTILINEAR_GRID
DIMENSIONS 5 10 15
X_COORDINATES 5 double
 0.00000000 0.25000000 0.50000000 0.75000000 1.00000000
Y_COORDINATES 10 double
 0.00000000 0.11111111 0.22222222 0.33333333 0.44444444 0.55555556
 0.66666667 0.77777778 0.88888889 1.00000000
Z_COORDINATES 15 double
 0.00000000 0.07142857 0.14285714 0.21428571 0.28571429 0.35714286
 0.42857143 0.50000000 0.57142857 0.64285714 0.71428571 0.78571429
 0.85714286 0.92857143 1.00000000
POINT_DATA 750
SCALARS scalar_data double 1
LOOKUP_TABLE default
 0.00000000
 0.07136785
 0.14237173
 0.21264953
 0.28184285
 0.34959881
 0.41557185
 0.47942554
 0.54083421
 0.59948470
 0.65507790
 0.70733028
 0.75597537
 0.80076507
 0.84147098
 0.00000000
 0.08810845
 0.17576757
 0.26253029
 0.34795414
 0.43160347
 0.51305167
 0.59188338
 0.66769656
 0.74010457
 0.80873814
 0.87324726
 0.93330292
 0.98859886
 1.03885307
 0.00000000
 0.10661123
 0.21267876
 0.31766165
 0.42102451
 0.52224019
 0.62079252
 0.71617889
 0.80791284
 0.89552653
 0.97857316
 1.05662918
 1.12929653
 1.19620462
 1.25701221
 0.00000000
 0.12687617
 0.25310530
 0.37804362
 0.50105396
 0.62150899
 0.73879441
 0.85231207
 0.96148305
 1.06575058
 1.16458293
 1.25747605
 1.34395620
 1.42358235
 1.49594842
 0.00000000
 0.14890329
 0.29704719
 0.44367619
 0.58804249
 0.72940986
 0.86705733
 1.00028291
 1.12840719
 1.25077673
 1.36676746
 1.47578786
 1.57728193
 1.67073207
 1.75566168
 0.00000000
 0.17269257
 0.34450443
 0.51455937
 0.68199011
 0.84594279
 1.00558128
 1.16009143
 1.30868526
 1.45060496
 1.58512676
 1.71156462
 1.82927372
 1.93765376
 2.03615201
 0.00000000
 0.19824402
 0.39547703
 0.59069315
 0.78289681
 0.97110780
 1.15436626
 1.33173761
 1.50231726
 1.66523529
 1.81966083
 1.96480633
 2.09993157
 2.22434743
 2.33741940
 0.00000000
 0.22555764
 0.44996497
 0.67207754
 0.89076259
 1.10490488
 1.31341228
 1.51522146
 1.70930319
 1.89466770
 2.07036965
 2.23551298
 2.38925548
 2.53081308
 2.65946385
 0.00000000
 0.25463343
 0.50796827
 0.75871253
 1.00558746
 1.24733402
 1.48271933
 1.71054297
 1.92964306
 2.13890221
 2.33725324
 2.52368457
 2.69724544
 2.85705070
 3.00228537
 0.00000000
 0.28547139
 0.56948692
 0.85059813
 1.12737141
 1.39839523
 1.66228742
 1.91770215
 2.16333685
 2.39793881
 2.62031159
 2.82932111
 3.02390146
 3.20306030
 3.36588394
 0.00000000
 0.08920981
 0.17796466
 0.26581192
 0.35230357
 0.43699851
 0.51946482
 0.59928192
 0.67604277
 0.74935588
 0.81884737
 0.88416285
 0.94496921
 1.00095634
 1.05183873
 0.00000000
 0.11013557
 0.21970946
 0.32816286
 0.43494267
 0.53950433
 0.64131459
 0.73985423
 0.83462070
 0.92513071
 1.01092268
 1.09155907
 1.16662865
 1.23574857
 1.29856633
 0.00000000
 0.13326404
 0.26584845
 0.39707706
 0.52628063
 0.65280024
 0.77599066
 0.89522361
 1.00989105
 1.11940816
 1.22321644
 1.32078648
 1.41162067
 1.49525577
 1.57126526
 0.00000000
 0.15859522
 0.31638162
 0.47255452
 0.62631745
 0.77688624
 0.92349301
 1.06539009
 1.20185381
 1.33218823
 1.45572866
 1.57184506
 1.67994526
 1.77947794
 1.86993552
 0.00000000
 0.18612911
 0.37130899
 0.55459523
 0.73505312
 0.91176232
 1.08382166
 1.25035364
 1.41050898
 1.56347091
 1.70845933
 1.84473483
 1.97160242
 2.08841509
 2.19457711
 0.00000000
 0.21586571
 0.43063054
 0.64319921
 0.85248764
 1.05742849
 1.25697660
 1.45011428
 1.63585657
 1.81325620
 1.98140845
 2.13945578
 2.28659215
 2.42206720
 2.54519002
 0.00000000
 0.24780503
 0.49434628
 0.73836644
 0.97862101
 1.21388475
 1.44295783
 1.66467201
 1.87789657
 2.08154411
 2.27457603
 2.45600791
 2.62491446
 2.78043429
 2.92177425
 0.00000000
 0.28194706
 0.56245622
 0.84009692
 1.11345324
 1.38113109
 1.64176535
 1.89402682
 2.13662899
 2.36833463
 2.58796206
 2.79439122
 2.98656934
 3.16351634
 3.32432982
 0.00000000
 0.31829179
 0.63496034
 0.94839067
 1.25698433
 1.55916752
 1.85339917
 2.13817871
 2.41205382
 2.67362776
 2.92156655
 3.15460572
 3.37155680
 3.57131337
 3.75285671
 0.00000000
 0.35683924
 0.71185865
 1.06324767
 1.40921426
 1.74799404
 2.07785927
 2.39712769
 2.70417107
 2.99742351
 3.27538949
 3.53665139
 3.77987683
 4.00382537
 4.20735492
 0.00000000
 0.10705177
 0.21355759
 0.31897430
 0.42276428
 0.52439821
 0.62335778
 0.71913831
 0.81125132
 0.89922705
 0.98261685
 1.06099542
 1.13396305
 1.20114761
 1.26220648
 0.00000000
 0.13216268
 0.26365135
 0.39379543
 0.52193121
 0.64740520
 0.76957751
 0.88782507
 1.00154484
 1.11015686
 1.21310722
 1.30987089
 1.39995438
 1.48289829
 1.55827960
 0.00000000
 0.15991685
 0.31901814
 0.47649247
 0.63153676
 0.78336029
 0.93118879
 1.07426834
 1.21186926
 1.34328980
 1.46785973
 1.58494377
 1.69394480
 1.79430693
 1.88551832
 0.00000000
 0.19031426
 0.37965795
 0.56706542
 0.75158094
 0.93226349
 1.10819161
 1.27846810
 1.44222457
 1.59862587
 1.74687439
 1.88621407
 2.01593431
 2.13537353
 2.24392263
 0.00000000
 0.22335493
 0.44557078
 0.66551428
 0.88206374
 1.09411479
 1.30058599
 1.50042437
 1.69261078
 1.87616509
 2.05015120
 2.21368180
 2.36592290
 2.50609810
 2.63349253
 0.00000000
 0.25903886
 0.51675665
 0.77183905
 1.02298517
 1.26891419
 1.50837192
 1.74013714
 1.96302789
 2.17590744
 2.37769015
 2.56734694
 2.74391058
 2.90648064
 3.05422802
 0.00000000
 0.29736603
 0.59321554
 0.88603972
 1.17434522
 1.45666170
 1.73154940
 1.99760641
 2.25347589
 2.49785293
 2.72949124
 2.94720949
 3.14989735
 3.33652114
 3.50612910
 0.00000000
 0.33833647
 0.67494746
 1.00811631
 1.33614389
 1.65735731
 1.97011842
 2.27283218
 2.56395479
 2.84200155
 3.10555448
 3.35326947
 3.58388321
 3.79621961
 3.98919578
 0.00000000
 0.38195015
 0.76195241
 1.13806880
 1.50838119
 1.87100103
 2.22407900
 2.56581446
 2.89446459
 3.20835332
 3.50587986
 3.78552686
 4.04586816
 4.28557605
 4.50342805
 0.00000000
 0.42820709
 0.85423038
 1.27589720
 1.69105711
 2.09759285
 2.49343113
 2.87655323
 3.24500528
 3.59690822
 3.93046738
 4.24398167
 4.53585219
 4.80459045
 5.04882591
 0.00000000
 0.12489373
 0.24915053
 0.37213668
 0.49322499
 0.61179791
 0.72725075
 0.83899469
 0.94645987
 1.04909823
 1.14638632
 1.23782799
 1.32295689
 1.40133888
 1.47257422
 0.00000000
 0.15418980
 0.30759324
 0.45942800
 0.60891974
 0.75530607
 0.89784043
 1.03579592
 1.16846898
 1.29518300
 1.41529175
 1.52818270
 1.63328011
 1.73004800
 1.81799287
 0.00000000
 0.18656965
 0.37218782
 0.55590789
 0.73679289
 0.91392034
 1.08638692
 1.25331306
 1.41384747
 1.56717143
 1.71250302
 1.84910107
 1.97626893
 2.09335808
 2.19977137
 0.00000000
 0.22203331
 0.44293427
 0.66157633
 0.87684443
 1.08764074
 1.29289022
 1.49154612
 1.68259533
 1.86506352
 2.03802012
 2.20058309
 2.35192336
 2.49126912
 2.61790973
 0.00000000
 0.26058075
 0.51983258
 0.77643333
 1.02907436
 1.27646725
 1.51735032
 1.75049510
 1.97471258
 2.18885927
 2.39184306
 2.58262876
 2.76024339
 2.92378112
 3.07240795
 0.00000000
 0.30221200
 0.60288276
 0.90047889
 1.19348269
 1.48039989
 1.75976724
 2.03016000
 2.29019920
 2.53855868
 2.77397184
 2.99523809
 3.20122902
 3.39089408
 3.56326602
 0.00000000
 0.34692704
 0.69208480
 1.03371301
 1.37006942
 1.69943865
 2.02014096
 2.33054081
 2.62905520
 2.91416175
 3.18440644
 3.43841107
 3.67488025
 3.89260800
 4.09048395
 0.00000000
 0.39472588
 0.78743870
 1.17613569
 1.55883454
 1.93358353
 2.29847149
 2.65163755
 2.99128059
 3.31566848
 3.62314689
 3.91214771
 4.18119708
 4.42892288
 4.65406174
 0.00000000
 0.44560851
 0.88894447
 1.32774693
 1.75977806
 2.18283453
 2.59475884
 2.99345020
 3.37687535
 3.74307887
 4.09019317
 4.41644800
 4.72017952
 4.99983872
 5.25399939
 0.00000000
 0.49957494
 0.99660211
 1.48854674
 1.97289996
 2.44719166
 2.90900298
 3.35597877
 3.78583949
 4.19639292
 4.58554528
 4.95131195
 5.29182756
 5.60535552
 5.89029689
 0.00000000
 0.14273570
 0.28474346
 0.42529907
 0.56368570
 0.69919762
 0.83114371
 0.95885108
 1.08166843
 1.19896941
 1.31015579
 1.41466056
 1.51195073
 1.60153015
 1.68294197
 0.00000000
 0.17621691
 0.35153514
 0.52506058
 0.69590828
 0.86320693
 1.02610335
 1.18376676
 1.33539312
 1.48020914
 1.61747629
 1.74649451
 1.86660584
 1.97719772
 2.07770614
 0.00000000
 0.21322246
 0.42535751
 0.63532330
 0.84204901
 1.04448039
 1.24158505
 1.43235778
 1.61582567
 1.79105306
 1.95714631
 2.11325836
 2.25859307
 2.39240924
 2.51402442
 0.00000000
 0.25375235
 0.50621059
 0.75608723
 1.00210792
 1.24301798
 1.47758882
 1.70462414
 1.92296609
 2.13150117
 2.32916586
 2.51495210
 2.68791241
 2.84716471
 2.99189683
 0.00000000
 0.29780658
 0.59409438
 0.88735237
 1.17608499
 1.45881972
 1.73411465
 2.00056583
 2.25681437
 2.50155345
 2.73353493
 2.95157573
 3.15456387
 3.34146414
 3.51132337
 0.00000000
 0.34538514
 0.68900887
 1.02911873
 1.36398022
 1.69188559
 2.01116256
 2.32018285
 2.61737051
 2.90120992
 3.17025353
 3.42312925
 3.65854745
 3.87530752
 4.07230403
 0.00000000
 0.39648805
 0.79095405
 1.18138630
 1.56579362
 1.94221560
 2.30873253
 2.66347521
 3.00463452
 3.33047057
 3.63932165
 3.92961266
 4.19986314
 4.44869486
 4.67483880
 0.00000000
 0.45111529
 0.89992995
 1.34415508
 1.78152519
 2.20980975
 2.62682456
 3.03044291
 3.41860639
 3.78933541
 4.14073930
 4.47102596
 4.77851095
 5.06162615
 5.31892771
 0.00000000
 0.50926687
 1.01593654
 1.51742507
 2.01117492
 2.49466804
 2.96543867
 3.42108594
 3.85928612
 4.27780442
 4.67450648
 5.04736914
 5.39449088
 5.71410140
 6.00457073
 0.00000000
 0.57094279
 1.13897384
 1.70119627
 2.25474282
 2.79679047
 3.32457484
 3.83540431
 4.32667371
 4.79587762
 5.24062318
 5.65864222
 6.04780292
 6.40612060
 6.73176788
VECTORS vector_data double
 0.00000000 0.00000000 0.99914988
 0.07136785 0.15066546 0.99660211
 0.14237173 0.30056254 0.98897180
 0.21264953 0.44892679 0.97629786
 0.28184285 0.59500158 0.95864492
 0.34959881 0.73804193 0.93610302
 0.41557185 0.87731836 0.90878711
 0.47942554 1.01212058 0.87683651
 0.54083421 1.14176112 0.84041415
 0.59948470 1.26557882 0.79970579
 0.65507790 1.38294223 0.75491903
 0.70733028 1.49325281 0.70628228
 0.75597537 1.59594799 0.65404358
 0.80076507 1.69050405 0.59846934
 0.84147098 1.77643875 0.56988274
 0.00000000 0.00000000 1.23351837
 0.08810845 0.15859522 1.23037297
 0.17576757 0.31638162 1.22095284
 0.26253029 0.47255452 1.20530600
 0.34795414 0.62631745 1.18351225
 0.43160347 0.77688624 1.15568274
 0.51305167 0.92349301 1.12195940
 0.59188338 1.06539009 1.08251421
 0.66769656 1.20185381 1.03754833
 0.74010457 1.33218823 0.98729109
 0.80873814 1.45572866 0.93199880
 0.87324726 1.57184506 0.87195343
 0.93330292 1.67994526 0.80746120
 0.98859886 1.77947794 0.73885103
 1.03885307 1.86993552 0.70355894
 0.00000000 0.00000000 1.49255722
 0.10661123 0.17445474 1.48875130
 0.21267876 0.34801978 1.47735293
 0.31766165 0.51980997 1.45842025
 0.42102451 0.68894919 1.43204982
 0.52224019 0.85457486 1.39837612
 0.62079252 1.01584231 1.35757087
 0.71617889 1.17192909 1.30984219
 0.80791284 1.32203919 1.25543348
 0.89552653 1.46540705 1.19462222
 0.97857316 1.60130153 1.12771855
 1.05662918 1.72902957 1.05506365
 1.12929653 1.84793978 0.97702806
 1.19620462 1.95742574 0.89400975
 1.25701221 2.05692907 0.85130632
 0.00000000 0.00000000 1.77626645
 0.12687617 0.19031426 1.77173708
 0.25310530 0.37965795 1.75817208
 0.37804362 0.56706542 1.73564063
 0.50105396 0.75158094 1.70425764
 0.62150899 0.93226349 1.66418315
 0.73879441 1.10819161 1.61562153
 0.85231207 1.27846810 1.55882046
 0.96148305 1.44222457 1.49406960
 1.06575058 1.59862587 1.42169918
 1.16458293 1.74687439 1.34207827
 1.25747605 1.88621407 1.25561293
 1.34395620 2.01593431 1.16274414
 1.42358235 2.13537353 1.06394549
 1.49594842 2.24392263 1.01312488
 0.00000000 0.00000000 2.08464604
 0.14890329 0.20617378 2.07933033
 0.29704719 0.41129611 2.06341029
 0.44367619 0.61432087 2.03696713
 0.58804249 0.81421268 2.00013570
 0.72940986 1.00995211 1.95310383
 0.86705733 1.20054091 1.89611138
 1.00028291 1.38500711 1.82944901
 1.12840719 1.56240995 1.75345668
 1.25077673 1.73184470 1.66852195
 1.36676746 1.89244726 1.57507797
 1.47578786 2.04339858 1.47360129
 1.57728193 2.18392883 1.36460944
 1.67073207 2.31332133 1.24865825
 1.75566168 2.43091618 1.18901461
 0.00000000 0.00000000 2.41769600
 0.17269257 0.22203331 2.41153103
 0.34450443 0.44293427 2.39306756
 0.51455937 0.66157633 2.36239975
 0.68199011 0.87684443 2.31968401
 0.84594279 1.08764074 2.26513817
 1.00558128 1.29289022 2.19904042
 1.16009143 1.49154612 2.12172785
 1.30868526 1.68259533 2.03359473
 1.45060496 1.86506352 1.93509055
 1.58512676 2.03802012 1.82671764
 1.71156462 2.20058309 1.70902872
 1.82927372 2.35192336 1.58262396
 1.93765376 2.49126912 1.44814803
 2.03615201 2.61790973 1.37897552
 0.00000000 0.00000000 2.77541632
 0.19824402 0.23789283 2.76833919
 0.39547703 0.47457243 2.74714388
 0.59069315 0.70883178 2.71193849
 0.78289681 0.93947617 2.66290256
 0.97110780 1.16532936 2.60028617
 1.15436626 1.38523952 2.52440865
 1.33173761 1.59808513 2.43565697
 1.50231726 1.80278071 2.33448375
 1.66523529 1.99828234 2.22140496
 1.81966083 2.18359299 2.09699730
 1.96480633 2.35776759 1.96189521
 2.09993157 2.51991788 1.81678771
 2.22434743 2.66921692 1.66241483
 2.33741940 2.80490328 1.58300762
 0.00000000 0.00000000 3.15780702
 0.22555764 0.25375235 3.14975481
 0.44996497 0.50621059 3.12563926
 0.67207754 0.75608723 3.08558335
 0.89076259 1.00210792 3.02979136
 1.10490488 1.24301798 2.95854782
 1.31341228 1.47758882 2.87221606
 1.51522146 1.70462414 2.77123637
 1.70930319 1.92296609 2.65612373
 1.89466770 2.13150117 2.52746520
 2.07036965 2.32916586 2.38591692
 2.23551298 2.51495210 2.23220077
 2.38925548 2.68791241 2.06710068
 2.53081308 2.84716471 1.89145865
 2.65946385 2.99189683 1.80111089
 0.00000000 0.00000000 3.56486808
 0.25463343 0.26961187 3.55577789
 0.50796827 0.53784876 3.52855370
 0.75871253 0.80334268 3.48333433
 1.00558746 1.06473966 3.42035040
 1.24733402 1.32070661 3.33992312
 1.48271933 1.56993812 3.24246266
 1.71054297 1.81116315 3.12846606
 1.92964306 2.04315147 2.99851468
 2.13890221 2.26471999 2.85327126
 2.33725324 2.47473872 2.69347653
 2.52368457 2.67213661 2.51994540
 2.69724544 2.85590693 2.33356288
 2.85705070 3.02511250 2.13527949
 3.00228537 3.17889039 2.03328534
 0.00000000 0.00000000 3.99659951
 0.28547139 0.27754163 3.98640843
 0.56948692 0.55366784 3.95588719
 0.85059813 0.82697041 3.90519143
 1.12737141 1.09605554 3.83457969
 1.39839523 1.35955092 3.74441208
 1.66228742 1.61611277 3.63514845
 1.91770215 1.86443265 3.50734603
 2.16333685 2.10324416 3.36165660
 2.39793881 2.33132940 3.19882315
 2.62031159 2.54752516 3.01967611
 2.82932111 2.75072886 2.82512910
 3.02390146 2.93990420 2.61617430
 3.20306030 3.11408640 2.39387735
 3.36588394 3.27238716 2.27953097
 0.00000000 0.00000000 1.24893735
 0.07136785 0.18833182 1.24575264
 0.14237173 0.37570318 1.23621475
 0.21264953 0.56115849 1.22037232
 0.28184285 0.74375197 1.19830615
 0.34959881 0.92255241 1.17012878
 0.41557185 1.09664795 1.13598389
 0.47942554 1.26515073 1.09604564
 0.54083421 1.42720140 1.05051769
 0.59948470 1.58197352 0.99963223
 0.65507790 1.72867778 0.94364878
 0.70733028 1.86656601 0.88285284
 0.75597537 1.99493499 0.81755447
 0.80076507 2.11313006 0.74808667
 0.84147098 2.22054843 0.71235343
 0.00000000 0.00000000 1.54189796
 0.08810845 0.19824402 1.53796622
 0.17576757 0.39547703 1.52619105
 0.26253029 0.59069315 1.50663249
 0.34795414 0.78289681 1.47939031
 0.43160347 0.97110780 1.44460343
 0.51305167 1.15436626 1.40244925
 0.59188338 1.33173761 1.35314276
 0.66769656 1.50231726 1.29693542
 0.74010457 1.66523529 1.23411387
 0.80873814 1.81966083 1.16499850
 0.87324726 1.96480633 1.08994178
 0.93330292 2.09993157 1.00932651
 0.98859886 2.22434743 0.92356379
 1.03885307 2.33741940 0.87944868
 0.00000000 0.00000000 1.86569653
 0.10661123 0.21806843 1.86093912
 0.21267876 0.43502473 1.84669116
 0.31766165 0.64976246 1.82302532
 0.42102451 0.86118649 1.79006228
 0.52224019 1.06821858 1.74797015
 0.62079252 1.26980289 1.69696359
 0.71617889 1.46491137 1.63730274
 0.80791284 1.65254899 1.56929185
 0.89552653 1.83175881 1.49327778
 0.97857316 2.00162691 1.40964818
 1.05662918 2.16128696 1.31882956
 1.12929653 2.30992473 1.22128507
 1.19620462 2.44678217 1.11751219
 1.25701221 2.57116134 1.06413290
 0.00000000 0.00000000 2.22033306
 0.12687617 0.23789283 2.21467135
 0.25310530 0.47457243 2.19771510
 0.37804362 0.70883178 2.16955079
 0.50105396 0.93947617 2.13032205
 0.62150899 1.16532936 2.08022893
 0.73879441 1.38523952 2.01952692
 0.85231207 1.59808513 1.94852557
 0.96148305 1.80278071 1.86758700
 1.06575058 1.99828234 1.77712397
 1.16458293 2.18359299 1.67759784
 1.25747605 2.35776759 1.56951617
 1.34395620 2.51991788 1.45343017
 1.42358235 2.66921692 1.32993186
 1.49594842 2.80490328 1.26640609
 0.00000000 0.00000000 2.60580755
 0.14890329 0.25771723 2.59916291
 0.29704719 0.51412014 2.57926287
 0.44367619 0.76790109 2.54620892
 0.58804249 1.01776585 2.50016963
 0.72940986 1.26244014 2.44137979
 0.86705733 1.50067614 2.37013923
 1.00028291 1.73125889 2.28681126
 1.12840719 1.95301244 2.19182085
 1.25077673 2.16480587 2.08565244
 1.36676746 2.36555907 1.96884746
 1.47578786 2.55424823 1.84200161
 1.57728193 2.72991104 1.70576180
 1.67073207 2.89165166 1.56082281
 1.75566168 3.03864522 1.48626826
 0.00000000 0.00000000 3.02212000
 0.17269257 0.27754163 3.01441379
 0.34450443 0.55366784 2.99133445
 0.51455937 0.82697041 2.95299969
 0.68199011 1.09605554 2.89960501
 0.84594279 1.35955092 2.83142272
 1.00558128 1.61611277 2.74880053
 1.16009143 1.86443265 2.65215981
 1.30868526 2.10324416 2.54199342
 1.45060496 2.33132940 2.41886318
 1.58512676 2.54752516 2.28339706
 1.71156462 2.75072886 2.13628590
 1.82927372 2.93990420 1.97827995
 1.93765376 3.11408640 1.81018503
 2.03615201 3.27238716 1.72371941
 0.00000000 0.00000000 3.46927041
 0.19824402 0.29736603 3.46042399
 0.39547703 0.59321554 3.43392985
 0.59069315 0.88603972 3.38992311
 0.78289681 1.17434522 3.32862820
 0.97110780 1.45666170 3.25035771
 1.15436626 1.73154940 3.15551081
 1.33173761 1.99760641 3.04457121
 1.50231726 2.25347589 2.91810469
 1.66523529 2.49785293 2.77675620
 1.81966083 2.72949124 2.62124662
 1.96480633 2.94720949 2.45236901
 2.09993157 3.14989735 2.27098464
 2.22434743 3.33652114 2.07801853
 2.33741940 3.50612910 1.97875952
 0.00000000 0.00000000 3.94725877
 0.22555764 0.31719044 3.93719352
 0.44996497 0.63276324 3.90704908
 0.67207754 0.94510904 3.85697919
 0.89076259 1.25263490 3.78723920
 1.10490488 1.55377248 3.69818477
 1.31341228 1.84698602 3.59027008
 1.51522146 2.13078017 3.46404547
 1.70930319 2.40370761 3.32015467
 1.89466770 2.66437646 3.15933150
 2.07036965 2.91145732 2.98239615
 2.23551298 3.14369012 2.79025097
 2.38925548 3.35989051 2.58387586
 2.53081308 3.55895589 2.36432331
 2.65946385 3.73987104 2.25138861
 0.00000000 0.00000000 4.45608510
 0.25463343 0.33701484 4.44472237
 0.50796827 0.67231095 4.41069212
 0.75871253 1.00417835 4.35416791
 1.00558746 1.33092458 4.27543800
 1.24733402 1.65088326 4.17490390
 1.48271933 1.96242265 4.05307833
 1.71054297 2.26395393 3.91058258
 1.92964306 2.55393934 3.74814335
 2.13890221 2.83089999 3.56658908
 2.33725324 3.09342340 3.36684566
 2.52368457 3.34017076 3.14993175
 2.69724544 3.56988367 2.91695360
 2.85705070 3.78139063 2.66909936
 3.00228537 3.97361298 2.54160667
 0.00000000 0.00000000 4.99574938
 0.28547139 0.34692704 4.98301054
 0.56948692 0.69208480 4.94485899
 0.85059813 1.03371301 4.88148928
 1.12737141 1.37006942 4.79322461
 1.39839523 1.69943865 4.68051510
 1.66228742 2.02014096 4.54393557
 1.91770215 2.33054081 4.38418254
 2.16333685 2.62905520 4.20207075
 2.39793881 2.91416175 3.99852893
 2.62031159 3.18440644 3.77459513
 2.82932111 3.43841107 3.53141138
 3.02390146 3.67488025 3.27021788
 3.20306030 3.89260800 2.99234669
 3.36588394 4.09048395 2.84941371
 0.00000000 0.00000000 1.49872482
 0.07136785 0.22599819 1.49490316
 0.14237173 0.45084381 1.48345770
 0.21264953 0.67339019 1.46444678
 0.28184285 0.89250237 1.43796738
 0.34959881 1.10706289 1.40415453
 0.41557185 1.31597754 1.36318067
 0.47942554 1.51818087 1.31525476
 0.54083421 1.71264168 1.26062122
 0.59948470 1.89836823 1.19955868
 0.65507790 2.07441334 1.13237854
 0.70733028 2.23987921 1.05942341
 0.75597537 2.39392199 0.98106536
 0.80076507 2.53575607 0.89770401
 0.84147098 2.66465812 0.85482411
 0.00000000 0.00000000 1.85027755
 0.08810845 0.23789283 1.84555946
 0.17576757 0.47457243 1.83142925
 0.26253029 0.70883178 1.80795899
 0.34795414 0.93947617 1.77526837
 0.43160347 1.16532936 1.73352411
 0.51305167 1.38523952 1.68293910
 0.59188338 1.59808513 1.62377131
 0.66769656 1.80278071 1.55632250
 0.74010457 1.99828234 1.48093664
 0.80873814 2.18359299 1.39799820
 0.87324726 2.35776759 1.30793014
 0.93330292 2.51991788 1.21119181
 0.98859886 2.66921692 1.10827655
 1.03885307 2.80490328 1.05533841
 0.00000000 0.00000000 2.23883583
 0.10661123 0.26168211 2.23312695
 0.21267876 0.52202968 2.21602940
 0.31766165 0.77971496 2.18763038
 0.42102451 1.03342379 2.14807473
 0.52224019 1.28186230 2.09756417
 0.62079252 1.52376347 2.03635631
 0.71617889 1.75789364 1.96476329
 0.80791284 1.98305878 1.88315022
 0.89552653 2.19811058 1.79193334
 0.97857316 2.40195229 1.69157782
 1.05662918 2.59354435 1.58259547
 1.12929653 2.77190967 1.46554209
 1.19620462 2.93613861 1.34101463
 1.25701221 3.08539361 1.27695948
 0.00000000 0.00000000 2.66439967
 0.12687617 0.28547139 2.65760562
 0.25310530 0.56948692 2.63725813
 0.37804362 0.85059813 2.60346095
 0.50105396 1.12737141 2.55638646
 0.62150899 1.39839523 2.49627472
 0.73879441 1.66228742 2.42343230
 0.85231207 1.91770215 2.33823069
 0.96148305 2.16333685 2.24110440
 1.06575058 2.39793881 2.13254876
 1.16458293 2.62031159 2.01311740
 1.25747605 2.82932111 1.88341940
 1.34395620 3.02390146 1.74411620
 1.42358235 3.20306030 1.59591823
 1.49594842 3.36588394 1.51968731
 0.00000000 0.00000000 3.12696906
 0.14890329 0.30926068 3.11899549
 0.29704719 0.61694416 3.09511544
 0.44367619 0.92148131 3.05545070
 0.58804249 1.22131903 3.00020355
 0.72940986 1.51492817 2.92965575
 0.86705733 1.80081137 2.84416708
 1.00028291 2.07751067 2.74417352
 1.12840719 2.34361492 2.63018502
 1.25077673 2.59776705 2.50278293
 1.36676746 2.83867089 2.36261695
 1.47578786 3.06509787 2.21040194
 1.57728193 3.27589325 2.04691415
 1.67073207 3.46998199 1.87298737
 1.75566168 3.64637427 1.78352192
 0.00000000 0.00000000 3.62654400
 0.17269257 0.33304996 3.61729654
 0.34450443 0.66440141 3.58960134
 0.51455937 0.99236449 3.54359963
 0.68199011 1.31526664 3.47952601
 0.84594279 1.63146110 3.39770726
 1.00558128 1.93933532 3.29856063
 1.16009143 2.23731918 3.18259177
 1.30868526 2.52389300 3.05039210
 1.45060496 2.79759528 2.90263582
 1.58512676 3.05703019 2.74007647
 1.71156462 3.30087463 2.56354308
 1.82927372 3.52788504 2.37393594
 1.93765376 3.73690368 2.17222204
 2.03615201 3.92686460 2.06846329
 0.00000000 0.00000000 4.16312449
 0.19824402 0.35683924 4.15250879
 0.39547703 0.71185865 4.12071582
 0.59069315 1.06324767 4.06790773
 0.78289681 1.40921426 3.99435384
 0.97110780 1.74799404 3.90042925
 1.15436626 2.07785927 3.78661297
 1.33173761 2.39712769 3.65348545
 1.50231726 2.70417107 3.50172562
 1.66523529 2.99742351 3.33210744
 1.81966083 3.27538949 3.14549594
 1.96480633 3.53665139 2.94284282
 2.09993157 3.77987683 2.72518157
 2.22434743 4.00382537 2.49362224
 2.33741940 4.20735492 2.37451143
 0.00000000 0.00000000 4.73671053
 0.22555764 0.38062852 4.72463222
 0.44996497 0.75931589 4.68845889
 0.67207754 1.13413085 4.62837502
 0.89076259 1.50316188 4.54468703
 1.10490488 1.86452698 4.43782172
 1.31341228 2.21638323 4.30832409
 1.51522146 2.55693621 4.15685456
 1.70930319 2.88444914 3.98418560
 1.89466770 3.19725175 3.79119780
 2.07036965 3.49374878 3.57887538
 2.23551298 3.77242815 3.34830116
 2.38925548 4.03186861 3.10065103
 2.53081308 4.27074706 2.83718797
 2.65946385 4.48784525 2.70166633
 0.00000000 0.00000000 5.34730212
 0.25463343 0.40441781 5.33366684
 0.50796827 0.80677314 5.29283054
 0.75871253 1.20501402 5.22500149
 1.00558746 1.59710950 5.13052560
 1.24733402 1.98105991 5.00988468
 1.48271933 2.35490718 4.86369400
 1.71054297 2.71674472 4.69269909
 1.92964306 3.06472721 4.49777202
 2.13890221 3.39707998 4.27990690
 2.33725324 3.71210808 4.04021479
 2.52368457 4.00820491 3.77991811
 2.69724544 4.28386040 3.50034432
 2.85705070 4.53766876 3.20291923
 3.00228537 4.76833558 3.04992801
 0.00000000 0.00000000 5.99489926
 0.28547139 0.41631245 5.97961265
 0.56948692 0.83050176 5.93383078
 0.85059813 1.24045561 5.85778714
 1.12737141 1.64408330 5.75186953
 1.39839523 2.03932638 5.61661812
 1.66228742 2.42416915 5.45272268
 1.91770215 2.79664898 5.26101905
 2.16333685 3.15486624 5.04248490
 2.39793881 3.49699410 4.79823472
 2.62031159 3.82128773 4.52951416
 2.82932111 4.12609329 4.23769365
 3.02390146 4.40985630 3.92426146
 3.20306030 4.67112960 3.59081603
 3.36588394 4.90858074 3.41929645
 0.00000000 0.00000000 1.74851228
 0.07136785 0.26366455 1.74405369
 0.14237173 0.52598445 1.73070065
 0.21264953 0.78562189 1.70852125
 0.28184285 1.04125276 1.67762861
 0.34959881 1.29157337 1.63818029
 0.41557185 1.53530713 1.59037745
 0.47942554 1.77121102 1.53446389
 0.54083421 1.99808195 1.47072476
 0.59948470 2.21476293 1.39948513
 0.65507790 2.42014890 1.32110830
 0.70733028 2.61319242 1.23599398
 0.75597537 2.79290899 1.14457626
 0.80076507 2.95838208 1.04732134
 0.84147098 3.10876780 0.99729480
 0.00000000 0.00000000 2.15865714
 0.08810845 0.27754163 2.15315270
 0.17576757 0.55366784 2.13666746
 0.26253029 0.82697041 2.10928549
 0.34795414 1.09605554 2.07114644
 0.43160347 1.35955092 2.02244480
 0.51305167 1.61611277 1.96342895
 0.59188338 1.86443265 1.89439986
 0.66769656 2.10324416 1.81570958
 0.74010457 2.33132940 1.72775942
 0.80873814 2.54752516 1.63099790
 0.87324726 2.75072886 1.52591850
 0.93330292 2.93990420 1.41305711
 0.98859886 3.11408640 1.29298931
 1.03885307 3.27238716 1.23122815
 0.00000000 0.00000000 2.61197514
 0.10661123 0.30529580 2.60531477
 0.21267876 0.60903462 2.58536763
 0.31766165 0.90966745 2.55223545
 0.42102451 1.20566109 2.50608719
 0.52224019 1.49550601 2.44715820
 0.62079252 1.77772405 2.37574903
 0.71617889 2.05087592 2.29222384
 0.80791284 2.31356858 2.19700860
 0.89552653 2.56446234 2.09058889
 0.97857316 2.80227767 1.97350745
 1.05662918 3.02580175 1.84636138
 1.12929653 3.23389462 1.70979910
 1.19620462 3.42549504 1.56451706
 1.25701221 3.59962588 1.48978606
 0.00000000 0.00000000 3.10846628
 0.12687617 0.33304996 3.10053989
 0.25310530 0.66440141 3.07680115
 0.37804362 0.99236449 3.03737111
 0.50105396 1.31526664 2.98245087
 0.62150899 1.63146110 2.91232051
 0.73879441 1.93933532 2.82733769
 0.85231207 2.23731918 2.72793580
 0.96148305 2.52389300 2.61462180
 1.06575058 2.79759528 2.48797356
 1.16458293 3.05703019 2.34863697
 1.25747605 3.30087463 2.19732264
 1.34395620 3.52788504 2.03480224
 1.42358235 3.73690368 1.86190461
 1.49594842 3.92686460 1.77296853
 0.00000000 0.00000000 3.64813057
 0.14890329 0.36080412 3.63882807
 0.29704719 0.71976819 3.61096801
 0.44367619 1.07506153 3.56469248
 0.58804249 1.42487220 3.50023748
 0.72940986 1.76741620 3.41793171
 0.86705733 2.10094660 3.31819492
 1.00028291 2.42376245 3.20153577
 1.12840719 2.73421741 3.06854920
 1.25077673 3.03072822 2.91991341
 1.36676746 3.31178270 2.75638645
 1.47578786 3.57594752 2.57880226
 1.57728193 3.82187546 2.38806651
 1.67073207 4.04831232 2.18515193
 1.75566168 4.25410331 2.08077557
 0.00000000 0.00000000 4.23096800
 0.17269257 0.38855829 4.22017930
 0.34450443 0.77513497 4.18786823
 0.51455937 1.15775857 4.13419956
 0.68199011 1.53447775 4.05944701
 0.84594279 1.90337129 3.96399180
 1.00558128 2.26255788 3.84832074
 1.16009143 2.61020571 3.71302373
 1.30868526 2.94454183 3.55879078
 1.45060496 3.26386116 3.38640845
 1.58512676 3.56653522 3.19675588
 1.71156462 3.85102040 2.99080025
 1.82927372 4.11586588 2.76959193
 1.93765376 4.35972096 2.53425905
 2.03615201 4.58134203 2.41320717
 0.00000000 0.00000000 4.85697857
 0.19824402 0.41631245 4.84459358
 0.39547703 0.83050176 4.80750179
 0.59069315 1.24045561 4.74589236
 0.78289681 1.64408330 4.66007948
 0.97110780 2.03932638 4.55050079
 1.15436626 2.42416915 4.41771513
 1.33173761 2.79664898 4.26239969
 1.50231726 3.15486624 4.08534656
 1.66523529 3.49699410 3.88745869
 1.81966083 3.82128773 3.66974527
 1.96480633 4.12609329 3.43331662
 2.09993157 4.40985630 3.17937849
 2.22434743 4.67112960 2.90922595
 2.33741940 4.90858074 2.77026333
 0.00000000 0.00000000 5.52616228
 0.22555764 0.44406661 5.51207092
 0.44996497 0.88586854 5.46986871
 0.67207754 1.32315265 5.39977086
 0.89076259 1.75368886 5.30213487
 1.10490488 2.17528147 5.17745868
 1.31341228 2.58578043 5.02637811
 1.51522146 2.98309224 4.84966365
 1.70930319 3.36519066 4.64821653
 1.89466770 3.73012704 4.42306410
 2.07036965 4.07604025 4.17535462
 2.23551298 4.40116617 3.90635135
 2.38925548 4.70384672 3.61742620
 2.53081308 4.98253824 3.31005263
 2.65946385 5.23581946 3.15194406
 0.00000000 0.00000000 6.23851914
 0.25463343 0.47182078 6.22261131
 0.50796827 0.94123532 6.17496897
 0.75871253 1.40584969 6.09583507
 1.00558746 1.86329441 5.98561320
 1.24733402 2.31123656 5.84486546
 1.48271933 2.74739171 5.67430966
 1.71054297 3.16953551 5.47481561
 1.92964306 3.57551508 5.24740070
 2.13890221 3.96325998 4.99322471
 2.33725324 4.33079276 4.71358392
 2.52368457 4.67623906 4.40990446
 2.69724544 4.99783714 4.08373504
 2.85705070 5.29394688 3.73673911
 3.00228537 5.56305818 3.55824934
 0.00000000 0.00000000 6.99404914
 0.28547139 0.48569786 6.97621476
 0.56948692 0.96891872 6.92280258
 0.85059813 1.44719822 6.83408499
 1.12737141 1.91809719 6.71051445
 1.39839523 2.37921411 6.55272114
 1.66228742 2.82819735 6.36150979
 1.91770215 3.26275714 6.13785556
 2.16333685 3.68067729 5.88289905
 2.39793881 4.07982645 5.59794051
 2.62031159 4.45816902 5.28443319
 2.82932111 4.81377550 4.94397593
 3.02390146 5.14483235 4.57830503
 3.20306030 5.44965120 4.18928536
 3.36588394 5.72667754 3.98917920