# vtk DataFile Version 2.0
Comment goes here
ASCII

DATASET STRUCTURED_POINTS
DIMENSIONS 3 3 3

ORIGIN 0.000 0.000 0.000
SPACING 1.000 1.000 1.000

POINT_DATA 27
SCALARS scalars double
LOOKUP_TABLE default

0.000000 5.000000 10.000000 
0.000000 5.000000 10.000000 
0.000000 5.000000 10.000000 
0.000000 5.000000 10.000000 
0.000000 5.000000 10.000000 
-0.000000 5.000000 10.000000 
0.000000 5.000000 10.000000 
0.000000 5.000000 10.000000 
-0.000000 5.000000 10.000000 
